ITEM: TIMESTEP
0
ITEM: NUMBER OF ATOMS
128
ITEM: BOX BOUNDS pp pp pp
-6.0000000000000000e+00 5.9723215200000004e+00
-6.0000000000000000e+00 5.9723215200000004e+00
-6.0000000000000000e+00 5.9723215200000004e+00
ITEM: ATOMS id type xs ys zs
1 2 0.255769 0.128692 0.0993191
17 2 0.484892 0.153039 0.0254677
77 1 0.414922 0.0154102 0.139774
109 1 0.643158 0.099267 0.150732
128 1 0.927041 0.0519999 0.0914504
91 2 0.0225889 0.321778 0.000303659
116 1 0.104267 0.236446 0.132808
49 2 0.687542 0.269545 0.0638401
92 1 0.857512 0.275728 0.0166594
68 1 0.365964 0.468044 0.0687317
85 2 0.691223 0.448303 0.0172745
9 2 0.0472123 0.66423 0.0318991
36 1 0.128959 0.601996 0.189519
35 2 0.242722 0.619199 0.0531601
44 1 0.34572 0.778113 0.00178281
70 1 0.365254 0.695027 0.197957
61 2 0.541003 0.649573 0.055629
94 1 0.698303 0.613218 0.13219
108 1 0.874756 0.721795 0.0338046
13 2 0.0482038 0.940249 0.123928
48 1 0.176908 0.98942 0.0203521
37 2 0.283479 0.888495 0.109386
39 2 0.568993 0.907112 0.110998
71 2 0.806299 0.912794 0.0474488
101 2 0.988459 0.87691 0.00280195
14 2 0.0611079 0.00673505 0.261865
78 1 0.564823 0.136718 0.391264
81 2 0.828253 0.116495 0.223919
22 1 0.110766 0.385829 0.309491
18 2 0.251474 0.236818 0.366062
50 2 0.526063 0.239007 0.237146
54 1 0.416998 0.330079 0.338954
86 1 0.657585 0.37165 0.21249
2 2 0.970757 0.272837 0.357846
113 1 0.898395 0.310067 0.21097
21 2 0.259933 0.487512 0.22217
30 1 0.314903 0.561031 0.391677
53 2 0.476648 0.434089 0.219686
62 1 0.525749 0.550376 0.317147
87 2 0.789806 0.408826 0.348027
5 2 0.99128 0.491797 0.201804
117 1 0.83029 0.5612 0.309892
121 1 0.0316687 0.781804 0.254808
29 2 0.241744 0.694976 0.311338
55 2 0.674298 0.625797 0.301545
63 2 0.685241 0.764744 0.331792
93 2 0.87915 0.692488 0.210771
38 1 0.221532 0.891791 0.281611
41 2 0.468848 0.991834 0.32475
72 1 0.507746 0.837273 0.292245
82 2 0.661865 0.980136 0.336157
102 1 0.771791 0.849085 0.20823
103 2 0.908097 0.908011 0.306003
45 1 0.060704 0.116325 0.421123
126 1 0.108887 0.0214676 0.596023
46 1 0.268213 0.0258083 0.434986
19 2 0.424902 0.135153 0.487776
125 1 0.84852 0.0760352 0.405573
114 1 0.0413429 0.275407 0.574232
24 1 0.27236 0.294222 0.521095
23 2 0.442905 0.376825 0.551315
56 1 0.593961 0.233838 0.580431
51 2 0.741801 0.211666 0.452517
88 1 0.866901 0.33856 0.473721
6 2 0.190651 0.445834 0.470128
118 1 0.0261458 0.518215 0.485146
64 1 0.497777 0.54098 0.587993
96 1 0.65211 0.435705 0.462884
10 2 0.117899 0.692468 0.412637
31 2 0.344977 0.618149 0.561838
40 1 0.286019 0.782979 0.483312
33 2 0.471875 0.774346 0.477095
104 1 0.797894 0.603582 0.559013
95 2 0.900135 0.618604 0.438306
122 1 0.936036 0.78947 0.469409
110 1 0.645 0.850949 0.470145
83 2 0.00171656 0.147262 0.656903
3 2 0.278855 0.0381625 0.637752
26 1 0.211786 0.116701 0.783622
52 2 0.522118 0.0200861 0.729932
58 1 0.431476 0.139133 0.676322
89 2 0.718317 0.187524 0.716157
90 1 0.835126 0.126487 0.601125
25 2 0.279384 0.273715 0.721249
27 2 0.561525 0.328178 0.745175
98 1 0.802527 0.356525 0.701777
119 1 0.993538 0.397395 0.761768
11 2 0.00786262 0.553046 0.669273
32 1 0.157836 0.441908 0.66271
15 2 0.262181 0.58873 0.670706
57 2 0.641265 0.435155 0.711297
97 2 0.874893 0.532363 0.677131
123 1 0.10863 0.71406 0.653987
65 2 0.596341 0.699642 0.697283
73 2 0.739677 0.719732 0.677609
105 2 0.0152573 0.880535 0.63128
47 1 0.294703 0.883721 0.710666
79 1 0.528416 0.834737 0.636237
111 1 0.828729 0.884837 0.61194
4 2 0.0473856 0.115478 0.997737
20 2 0.296403 0.0629243 0.909455
80 1 0.464821 0.0167298 0.885034
69 2 0.718323 0.0670069 0.987534
112 1 0.762677 0.00900008 0.801859
84 2 0.863157 0.126582 0.950003
115 1 0.989103 0.116399 0.824519
7 2 0.0774726 0.286731 0.869534
28 1 0.325747 0.232776 0.979538
34 1 0.216788 0.381012 0.867864
66 1 0.419815 0.364798 0.814701
59 2 0.774682 0.391671 0.901118
60 1 0.644205 0.219745 0.881876
12 2 0.102899 0.517575 0.862554
8 2 0.217573 0.579179 0.913028
67 2 0.473659 0.526189 0.941929
100 1 0.651296 0.525324 0.854728
99 2 0.887726 0.477222 0.874989
120 1 0.999604 0.495204 0.993659
107 2 0.0388454 0.660415 0.814413
124 1 0.160717 0.7578 0.924198
42 1 0.361114 0.612866 0.824748
43 2 0.427899 0.782939 0.867392
74 1 0.582502 0.720456 0.86376
75 2 0.813985 0.789499 0.884928
106 1 0.832614 0.63013 0.82093
16 2 0.161113 0.944955 0.818634
76 1 0.674933 0.894054 0.946185
127 1 0.968853 0.892784 0.801417
ITEM: TIMESTEP
50
ITEM: NUMBER OF ATOMS
128
ITEM: BOX BOUNDS pp pp pp
-6.0000000000000000e+00 5.9723215200000004e+00
-6.0000000000000000e+00 5.9723215200000004e+00
-6.0000000000000000e+00 5.9723215200000004e+00
ITEM: ATOMS id type xs ys zs
1 2 0.255196 0.134561 0.0979783
17 2 0.512792 0.117323 0.999173
77 1 0.42006 0.0416799 0.142158
109 1 0.687248 0.115797 0.127338
128 1 0.912804 0.0291819 0.106818
91 2 0.00721178 0.320124 0.992709
116 1 0.088522 0.238547 0.109929
49 2 0.682548 0.267075 0.0415402
92 1 0.84734 0.287562 0.00397147
68 1 0.377638 0.448774 0.114908
85 2 0.705208 0.46001 0.0481888
9 2 0.039862 0.643007 0.0362009
36 1 0.133923 0.6106 0.175206
35 2 0.278139 0.593457 0.0457336
44 1 0.331093 0.779103 0.0183161
70 1 0.400856 0.677232 0.176322
61 2 0.453916 0.643219 0.994709
94 1 0.67943 0.648928 0.104534
108 1 0.90238 0.735029 0.0359261
13 2 0.0535711 0.926429 0.105842
48 1 0.175583 0.00195375 0.996922
37 2 0.293255 0.933118 0.120277
39 2 0.583482 0.946744 0.139435
71 2 0.832045 0.888078 0.0802683
101 2 0.0313202 0.848358 0.996654
14 2 0.0627189 0.975726 0.300068
78 1 0.57104 0.128157 0.423545
81 2 0.828307 0.118118 0.219202
22 1 0.120779 0.378354 0.293432
18 2 0.244934 0.261348 0.376652
50 2 0.562257 0.185801 0.243174
54 1 0.407434 0.319407 0.335587
86 1 0.627325 0.361652 0.192758
2 2 0.00348009 0.283473 0.361748
113 1 0.882824 0.290959 0.238837
21 2 0.24755 0.495811 0.228919
30 1 0.29193 0.538536 0.394455
53 2 0.48858 0.442031 0.232808
62 1 0.525905 0.56364 0.343528
87 2 0.770146 0.421596 0.30016
5 2 0.986662 0.465706 0.206633
117 1 0.858487 0.578796 0.281902
121 1 0.0208076 0.788671 0.234836
29 2 0.266664 0.691788 0.286716
55 2 0.675808 0.644558 0.286132
63 2 0.646699 0.778563 0.31279
93 2 0.856248 0.729003 0.209015
38 1 0.20928 0.869846 0.251515
41 2 0.442263 0.0122858 0.326335
72 1 0.503671 0.86263 0.278218
82 2 0.680804 0.00559602 0.377093
102 1 0.769607 0.89365 0.250941
103 2 0.92819 0.900094 0.336383
45 1 0.0989233 0.12667 0.401007
126 1 0.0746005 0.991275 0.611185
46 1 0.28702 0.0195826 0.443929
19 2 0.407695 0.145329 0.495976
125 1 0.855304 0.0681916 0.376876
114 1 0.0449251 0.248705 0.587879
24 1 0.274969 0.310148 0.531117
23 2 0.443557 0.384139 0.532041
56 1 0.596639 0.255819 0.59603
51 2 0.755191 0.202685 0.483347
88 1 0.873905 0.356709 0.490827
6 2 0.176533 0.450546 0.461367
118 1 0.0354814 0.553854 0.475853
64 1 0.530242 0.559358 0.628658
96 1 0.662552 0.436473 0.472648
10 2 0.0930278 0.723349 0.451328
31 2 0.347452 0.61418 0.544539
40 1 0.286848 0.782792 0.494681
33 2 0.44911 0.741724 0.432567
104 1 0.778517 0.600434 0.549108
95 2 0.89314 0.64471 0.439675
122 1 0.939725 0.809608 0.477045
110 1 0.655094 0.880426 0.478203
83 2 0.974181 0.105413 0.666515
3 2 0.252414 0.0102036 0.640838
26 1 0.214689 0.133674 0.762428
52 2 0.530999 0.996959 0.724652
58 1 0.42541 0.137935 0.656637
89 2 0.736851 0.203187 0.697366
90 1 0.838685 0.06402 0.589335
25 2 0.315708 0.272126 0.712605
27 2 0.567318 0.333875 0.747372
98 1 0.808396 0.374113 0.693478
119 1 0.994624 0.40395 0.760416
11 2 0.0381908 0.540698 0.638249
32 1 0.185695 0.441105 0.654672
15 2 0.260234 0.587083 0.648344
57 2 0.629611 0.452908 0.731202
97 2 0.881129 0.536184 0.674204
123 1 0.118781 0.702716 0.66598
65 2 0.593676 0.704207 0.69026
73 2 0.726761 0.704535 0.665822
105 2 0.98198 0.850735 0.660536
47 1 0.280709 0.853937 0.711024
79 1 0.526871 0.849344 0.635979
111 1 0.817963 0.841382 0.62491
4 2 0.0444491 0.103744 0.01342
20 2 0.333024 0.088322 0.906364
80 1 0.480944 0.969165 0.893249
69 2 0.736626 0.092754 0.949914
112 1 0.734208 0.00180772 0.769281
84 2 0.869346 0.124109 0.967554
115 1 0.00946233 0.13603 0.849902
7 2 0.0453102 0.29475 0.865727
28 1 0.369319 0.239711 0.0136304
34 1 0.203861 0.355986 0.850719
66 1 0.405524 0.384783 0.805943
59 2 0.771193 0.397278 0.886972
60 1 0.638099 0.238849 0.867497
12 2 0.0955079 0.505047 0.88783
8 2 0.209445 0.577645 0.92756
67 2 0.43431 0.507667 0.934272
100 1 0.622999 0.515106 0.885916
99 2 0.890881 0.479318 0.874799
120 1 0.988417 0.476188 0.0301754
107 2 0.0426085 0.627086 0.820979
124 1 0.143661 0.739063 0.927948
42 1 0.32552 0.612763 0.797244
43 2 0.382203 0.788952 0.862042
74 1 0.566326 0.723425 0.853403
75 2 0.831519 0.793392 0.883577
106 1 0.828846 0.633944 0.798932
16 2 0.150754 0.887162 0.836118
76 1 0.704662 0.907135 0.954184
127 1 0.958634 0.913317 0.817996
ITEM: TIMESTEP
100
ITEM: NUMBER OF ATOMS
128
ITEM: BOX BOUNDS pp pp pp
-6.0000000000000000e+00 5.9723215200000004e+00
-6.0000000000000000e+00 5.9723215200000004e+00
-6.0000000000000000e+00 5.9723215200000004e+00
ITEM: ATOMS id type xs ys zs
1 2 0.277366 0.15846 0.0785948
17 2 0.52148 0.121931 0.965204
77 1 0.419196 0.0836398 0.163236
109 1 0.667732 0.110387 0.100384
128 1 0.947722 0.0481811 0.0791388
91 2 0.00879129 0.330095 0.987056
116 1 0.109283 0.24597 0.0867242
49 2 0.695557 0.276471 0.0599541
92 1 0.843858 0.282105 0.988346
68 1 0.373381 0.447692 0.0938889
85 2 0.704984 0.538777 0.0774351
9 2 0.0515371 0.653189 0.0509095
36 1 0.144278 0.633797 0.189023
35 2 0.269855 0.607631 0.0694607
44 1 0.314098 0.753415 0.991963
70 1 0.410107 0.658736 0.188436
61 2 0.488119 0.669946 0.0199267
94 1 0.641812 0.721907 0.12529
108 1 0.905387 0.752357 0.0454739
13 2 0.0688417 0.917139 0.109383
48 1 0.228038 0.993737 0.0154859
37 2 0.340608 0.914935 0.13282
39 2 0.623688 0.917483 0.143518
71 2 0.829859 0.905978 0.0666057
101 2 0.0338284 0.842922 0.00790704
14 2 0.0496731 0.987095 0.303475
78 1 0.587396 0.132772 0.407572
81 2 0.820324 0.0826146 0.191793
22 1 0.101808 0.371697 0.2928
18 2 0.238754 0.262016 0.346775
50 2 0.562221 0.217638 0.231653
54 1 0.430764 0.283764 0.345908
86 1 0.63473 0.401691 0.169191
2 2 0.975959 0.238253 0.35859
113 1 0.875726 0.258234 0.216187
21 2 0.227709 0.480343 0.23563
30 1 0.304294 0.566762 0.377946
53 2 0.460694 0.450365 0.241929
62 1 0.53241 0.58798 0.370587
87 2 0.771051 0.418508 0.285297
5 2 0.000177696 0.513242 0.185473
117 1 0.821985 0.579404 0.279679
121 1 0.0131424 0.79817 0.236096
29 2 0.263676 0.716045 0.277548
55 2 0.66594 0.655336 0.28533
63 2 0.677608 0.796126 0.333317
93 2 0.837384 0.756318 0.202082
38 1 0.212193 0.89511 0.252641
41 2 0.437335 0.0155457 0.320771
72 1 0.513482 0.839171 0.283191
82 2 0.711656 0.0115386 0.384772
102 1 0.773067 0.917484 0.2258
103 2 0.930996 0.917733 0.33777
45 1 0.125905 0.112783 0.424724
126 1 0.0791398 0.966241 0.613138
46 1 0.323326 0.978412 0.460976
19 2 0.388816 0.141777 0.483735
125 1 0.866536 0.0832207 0.411563
114 1 0.0402348 0.236537 0.610676
24 1 0.258098 0.297222 0.539431
23 2 0.4756 0.36519 0.499325
56 1 0.600519 0.266028 0.580732
51 2 0.755084 0.209935 0.496054
88 1 0.886872 0.343423 0.482021
6 2 0.17856 0.459167 0.455528
118 1 0.0179856 0.525756 0.478734
64 1 0.531813 0.551395 0.609627
96 1 0.685953 0.434262 0.471648
10 2 0.0930549 0.716882 0.499625
31 2 0.34026 0.602006 0.567215
40 1 0.281477 0.750065 0.445167
33 2 0.456624 0.748746 0.430998
104 1 0.78254 0.606065 0.548612
95 2 0.893338 0.636491 0.424307
122 1 0.929117 0.813086 0.470713
110 1 0.683799 0.868664 0.4786
83 2 0.9891 0.102238 0.662991
3 2 0.251214 0.0033388 0.655172
26 1 0.226112 0.112762 0.779398
52 2 0.508119 0.953123 0.715714
58 1 0.46216 0.108605 0.635698
89 2 0.722514 0.215629 0.708649
90 1 0.828563 0.0834429 0.605232
25 2 0.331379 0.260113 0.684857
27 2 0.570138 0.33389 0.741342
98 1 0.784208 0.398554 0.71454
119 1 0.972772 0.406978 0.761755
11 2 0.00710666 0.540218 0.656522
32 1 0.152477 0.447125 0.648309
15 2 0.247132 0.592039 0.677042
57 2 0.621002 0.462227 0.746821
97 2 0.868247 0.534709 0.672847
123 1 0.101548 0.686893 0.692347
65 2 0.59502 0.712226 0.687926
73 2 0.730981 0.695463 0.688851
105 2 0.99509 0.844892 0.699833
47 1 0.280926 0.849627 0.719854
79 1 0.491945 0.834657 0.590237
111 1 0.834898 0.839495 0.676208
4 2 0.0721537 0.109415 0.990794
20 2 0.32189 0.0853486 0.896291
80 1 0.456597 0.98021 0.882273
69 2 0.724881 0.0750449 0.93661
112 1 0.691257 0.00327202 0.770488
84 2 0.858305 0.117737 0.946466
115 1 0.994447 0.116433 0.822966
7 2 0.029125 0.278354 0.861349
28 1 0.373774 0.231043 0.952437
34 1 0.183031 0.318403 0.829303
66 1 0.406867 0.365591 0.803107
59 2 0.745477 0.411704 0.87975
60 1 0.639236 0.23472 0.878317
12 2 0.0987843 0.509659 0.878363
8 2 0.212651 0.589353 0.931364
67 2 0.459064 0.538346 0.944002
100 1 0.636263 0.543113 0.905778
99 2 0.872301 0.471577 0.89008
120 1 0.986563 0.496981 0.0124609
107 2 0.0257286 0.618364 0.839196
124 1 0.129446 0.73636 0.925088
42 1 0.34829 0.613134 0.822963
43 2 0.395475 0.809415 0.850701
74 1 0.555087 0.741165 0.864225
75 2 0.828097 0.794538 0.878764
106 1 0.824206 0.624917 0.838558
16 2 0.168525 0.892963 0.865498
76 1 0.675608 0.889503 0.94356
127 1 0.969853 0.892007 0.858415
